# vtk DataFile Version 1.0
Cube
ASCII

DATASET POLYDATA
POINTS 1394 float
LINES 0 0
POINT_DATA 1394
SCALARS my_scalars float
LOOKUP_TABLE default
VECTORS vectors float
