# vtk DataFile Version 1.0
Cube
ASCII

DATASET POLYDATA
POINTS 426 float
11.562686 3.299131 25.198681
16.188608 -2.305119 6.238245
13.915807 36.039782 6.238245
1.967250 16.317106 8.778667
20.256742 10.340660 8.042672
0.403128 13.501429 5.044686
34.495628 13.501429 5.044686
16.973488 -5.917448 14.687367
14.700686 32.427453 14.687367
10.432380 -4.527915 24.370478
3.653814 11.850363 5.877421
21.021563 -13.592393 24.457260
18.748762 24.752508 24.457260
27.645326 23.006396 7.726260
7.500323 4.024973 26.160621
23.909171 -13.766458 21.108768
21.636370 24.578443 21.108768
25.698323 17.200664 15.821029
11.956413 6.046053 9.268493
4.743401 15.253299 -2.853425
2.470600 -3.919051 30.354293
-2.162792 -0.990780 6.141745
-4.435593 37.354121 6.141745
31.929708 -0.990780 6.141745
29.656907 37.354121 6.141745
0.836742 4.713731 26.238221
4.906923 5.051959 9.112839
4.025747 9.866121 24.922478
23.361385 -16.153382 24.275908
21.088584 22.191520 24.275908
10.237484 -6.509713 13.232086
7.964683 31.835189 13.232086
25.217393 0.467102 18.244658
0.802195 34.394808 -1.900128
-1.470606 15.222459 31.307589
34.894695 34.394808 -1.900128
32.621894 15.222459 31.307589
-0.106908 8.435011 11.273714
33.985592 8.435011 11.273714
0.541737 -0.785821 16.094242
34.634237 -0.785821 16.094242
24.075779 13.736391 5.801943
27.909675 -8.205230 23.943363
28.590763 10.417045 9.195803
26.252285 6.317199 29.269001
-5.375022 -5.816630 27.423359
28.717478 -5.816630 27.423359
6.753728 23.040337 8.204379
-0.049667 7.948959 24.593114
34.042833 7.948959 24.593114
26.991925 -10.727143 28.747005
12.853074 23.938252 2.136082
10.580273 4.765902 35.343799
11.139108 17.212665 17.153890
8.843499 15.867345 22.586525
13.914525 18.748692 15.480406
15.411594 17.662699 18.310947
2.999325 15.480451 18.457847
15.989088 5.399435 26.991131
25.331733 -7.304697 10.390111
23.058931 31.040204 10.390111
23.285654 -4.724993 25.759846
23.034217 1.395401 8.833094
23.578205 14.541134 9.597495
7.254189 -3.038687 11.946692
4.981387 35.306215 11.946692
9.125585 10.407592 22.306659
-3.501924 1.242812 15.072681
30.590576 1.242812 15.072681
21.633569 3.623852 24.500647
7.672462 5.175417 11.595322
20.751113 24.314690 8.585718
4.584553 25.072403 0.721131
2.311752 5.900054 33.928849
4.181023 3.053392 13.261635
-1.125835 25.855151 8.974235
32.966665 25.855151 8.974235
8.041267 31.447229 1.731576
5.768466 12.274880 34.939293
27.335748 26.851848 8.654573
26.032986 16.368321 22.795803
28.428772 25.462167 4.976318
11.979158 -2.400150 15.112462
0.158935 7.440984 4.346806
34.251435 7.440984 4.346806
15.078570 27.191533 0.799570
12.805768 8.019184 34.007287
17.305873 15.738229 6.377902
14.502215 -10.481679 25.034542
0.442082 3.948422 10.457696
34.534582 3.948422 10.457696
18.737546 -11.162626 22.199737
16.464745 27.182275 22.199737
2.624985 -6.119895 11.085075
0.352184 32.225007 11.085075
36.717485 -6.119895 11.085075
34.444684 32.225007 11.085075
12.106511 -8.952428 10.404371
9.833710 29.392474 10.404371
28.796455 -13.497138 21.232656
26.523653 24.847763 21.232656
10.964857 26.728496 5.648025
10.059361 -18.027925 26.423046
7.786560 20.316976 26.423046
11.707408 12.511732 7.928683
-3.265196 14.761537 9.025782
30.827304 14.761537 9.025782
8.918327 9.338685 6.117483
12.963676 8.338174 25.575898
12.302398 5.948548 29.548176
22.318263 -0.449713 17.486116
24.810258 3.014408 2.284308
22.537457 -16.157942 35.492025
25.904634 12.855494 22.072906
24.566891 -9.001344 21.960705
22.294090 29.343557 21.960705
20.019783 13.537363 1.235517
17.746982 -5.634986 34.443234
19.221466 -5.422138 24.792079
-2.798662 25.053465 -0.832174
-5.071463 5.881115 32.375544
31.293838 25.053465 -0.832174
29.021037 5.881115 32.375544
12.998767 -2.385201 8.620464
10.725966 35.959701 8.620464
8.729811 -7.114437 10.242849
6.457010 31.230465 10.242849
23.618040 24.672918 -1.435857
21.345239 5.500569 31.771861
8.905503 0.083301 14.009020
-5.337108 4.267867 25.785159
28.755392 4.267867 25.785159
3.722646 19.038600 17.357032
9.995216 13.686321 20.136349
10.921532 19.362088 22.565963
15.261832 -6.669160 26.700282
2.313623 -3.814312 26.058030
-1.028048 9.614831 21.401101
33.064452 9.614831 21.401101
7.456759 22.721414 1.802858
5.183957 3.549064 35.010575
-1.557377 -13.782417 19.563055
-3.830178 24.562485 19.563055
32.535123 -13.782417 19.563055
30.262322 24.562485 19.563055
18.922836 -13.641241 19.482480
16.650035 24.703660 19.482480
0.030333 13.994459 0.054662
-2.242468 -5.177891 33.262379
34.122833 13.994459 0.054662
31.850032 -5.177891 33.262379
18.783328 -2.668774 12.534776
18.936582 25.625543 -2.321942
16.663781 6.453194 30.885776
27.030419 -4.062357 23.932794
16.324932 -0.018856 17.938028
0.435792 -6.242069 22.431488
34.528292 -6.242069 22.431488
4.564985 -8.091863 8.443972
2.292183 30.253038 8.443972
-0.488490 -10.846286 25.993956
33.604010 -10.846286 25.993956
12.479900 -7.426927 29.321588
13.407660 14.779247 5.806241
-0.363700 22.337221 8.267189
33.728800 22.337221 8.267189
2.944254 29.188573 4.843330
13.862478 9.232542 6.400050
-1.768451 -3.712643 14.829604
32.324049 -3.712643 14.829604
25.886886 10.213555 7.279044
9.131894 25.733146 9.374485
5.514184 6.321663 28.735236
-0.368122 25.494304 2.511879
-2.640924 6.321955 35.719596
33.724378 25.494304 2.511879
31.451576 6.321955 35.719596
-0.114941 17.096109 19.577688
33.977559 17.096109 19.577688
7.438937 28.473049 8.176600
25.693922 5.152619 6.697327
-2.366705 -7.635234 11.280065
-4.639506 30.709668 11.280065
31.725795 -7.635234 11.280065
29.452994 30.709668 11.280065
-3.158538 4.108953 4.989751
30.933962 4.108953 4.989751
4.471261 9.843287 2.515984
2.198459 -9.329063 35.723702
19.722609 24.972208 4.770465
-3.347601 29.848009 5.788842
30.744899 29.848009 5.788842
25.134124 24.658825 10.291309
14.992837 10.250448 21.672371
11.184893 -10.424261 21.279443
8.912092 27.920641 21.279443
19.131504 -8.967110 25.348103
12.621608 1.500985 17.275168
13.326361 9.717602 29.836988
3.346617 17.386711 21.333840
0.796222 6.919463 1.096598
-1.476579 -12.252886 34.304315
34.888722 6.919463 1.096598
32.615921 -12.252886 34.304315
11.886272 2.249322 13.333602
17.618196 8.803863 -0.601004
15.345395 -10.368487 32.606714
4.256771 25.511228 9.141425
10.322778 9.211242 12.297338
26.060775 2.815311 11.040921
22.410365 11.386131 10.159524
4.244824 31.627262 0.608869
1.972023 12.454913 33.816586
28.510198 29.792112 -2.481754
26.237397 10.619762 30.725964
19.380355 13.356246 21.799591
6.720803 2.312019 0.533827
4.448001 -16.860330 33.741544
4.448001 40.656921 0.533827
2.175200 21.484571 33.741544
-2.950494 7.107849 0.210639
-5.223295 -12.064501 33.418356
31.142006 7.107849 0.210639
28.869205 -12.064501 33.418356
15.618526 3.183168 12.722695
22.418884 -5.836322 12.271036
20.146082 32.508580 12.271036
-3.847415 15.599806 23.901830
30.245085 15.599806 23.901830
26.077407 30.169408 7.096980
27.013835 23.198824 2.242456
24.741034 4.026475 35.450173
-1.819567 -13.029233 29.012051
-4.092368 25.315669 29.012051
32.272933 -13.029233 29.012051
30.000132 25.315669 29.012051
1.474088 11.634704 20.828255
-4.598568 4.243971 12.796283
29.493932 4.243971 12.796283
-4.682831 14.865926 28.742577
29.409669 14.865926 28.742577
-1.721852 29.788289 1.629451
-3.994653 10.615940 34.837168
32.370648 29.788289 1.629451
30.097847 10.615940 34.837168
6.088294 16.363745 29.262961
23.317057 1.228668 -0.954367
21.044255 -17.943682 32.253351
21.044255 39.573570 -0.954367
18.771454 20.401220 32.253351
29.245625 -5.602771 10.442441
26.972824 32.742131 10.442441
24.405633 0.525604 5.625023
22.132832 38.870505 5.625023
-3.162293 5.248036 28.236426
30.930207 5.248036 28.236426
20.523929 15.922744 23.618283
19.623814 27.508657 10.229213
22.716775 16.105614 17.812386
4.702991 13.276602 27.611902
6.179356 6.391754 0.243127
3.906554 -12.780596 33.450845
-1.893650 12.268663 23.301072
32.198850 12.268663 23.301072
-1.880528 19.418492 22.528530
32.211972 19.418492 22.528530
-0.922816 -12.257118 22.820932
-3.195617 26.087783 22.820932
33.169684 -12.257118 22.820932
30.896883 26.087783 22.820932
26.245878 15.077998 -0.197645
23.973077 -4.094351 33.010072
2.089107 -2.395421 12.326506
36.181607 -2.395421 12.326506
7.781248 14.591247 8.376552
20.459383 4.994648 8.258403
23.390337 -2.591118 13.576780
-2.517768 8.991354 27.330338
31.574732 8.991354 27.330338
3.161025 -3.560417 7.388130
0.888223 34.784484 7.388130
5.552058 3.048765 6.178915
10.704062 20.960587 18.206131
24.507579 -7.808159 26.517281
-4.276866 11.809274 26.579768
29.815634 11.809274 26.579768
6.555660 15.071138 4.293353
-2.689937 -3.269121 4.333071
-4.962739 35.075781 4.333071
31.402563 -3.269121 4.333071
29.129761 35.075781 4.333071
24.759746 7.046058 11.404663
25.506658 20.752744 17.479025
11.488891 8.635448 4.072297
14.655584 -18.508984 29.042328
12.382783 19.835918 29.042328
9.726514 -7.670616 23.742421
15.502394 19.813758 21.723066
9.666310 8.251895 28.288724
5.238242 2.282317 -2.706650
2.965441 -16.890033 30.501067
2.965441 40.627218 -2.706650
0.692640 21.454869 30.501067
11.324959 12.506244 1.025994
9.052157 -6.666106 34.233711
16.211313 31.999585 4.053561
23.126638 9.240075 4.932571
-5.646421 15.294163 20.076532
28.446079 15.294163 20.076532
2.494940 13.692699 23.985763
15.569424 23.595809 8.403768
18.260606 -5.356823 10.362041
15.987805 32.988078 10.362041
25.725864 27.372198 2.266672
23.453063 8.199848 35.474390
28.722362 11.749924 -3.024782
26.449561 -7.422425 30.182935
22.501808 27.766479 8.227100
17.460991 16.594536 -2.339418
15.188189 -2.577814 30.868300
2.160369 11.080942 -0.777913
-0.112432 -8.091408 32.429804
36.252869 11.080942 -0.777913
33.980068 -8.091408 32.429804
-0.095016 5.416659 13.634480
33.997484 5.416659 13.634480
1.241875 1.697746 5.121265
35.334375 1.697746 5.121265
7.039945 -12.667478 20.325456
4.767144 25.677424 20.325456
26.747408 -4.364031 6.592000
24.474607 33.980870 6.592000
0.754281 -0.001968 -2.431127
-1.518520 -19.174318 30.776591
-1.518520 38.342934 -2.431127
-3.791321 19.170584 30.776591
34.846781 -0.001968 -2.431127
32.573980 -19.174318 30.776591
32.573980 38.342934 -2.431127
30.301179 19.170584 30.776591
19.658506 18.070368 20.392096
-3.176877 7.828938 9.224079
30.915623 7.828938 9.224079
27.700838 0.513951 4.533736
25.428037 38.858853 4.533736
24.839794 -6.222904 23.024048
26.301370 32.500152 3.146288
24.028569 13.327802 36.354006
16.325898 -2.600379 9.432663
14.053097 35.744522 9.432663
3.037025 10.143739 12.197950
26.510236 -1.898531 9.625059
24.237434 36.446370 9.625059
3.633371 32.384225 -3.199933
1.360570 13.211876 30.007785
25.587359 32.809497 -3.352887
23.314558 13.637148 29.854830
-1.253691 19.080043 25.525080
32.838809 19.080043 25.525080
16.119093 -4.580557 1.583708
13.846292 -23.752907 34.791425
13.846292 33.764344 1.583708
11.573491 14.591995 34.791425
12.988064 -13.964744 23.764391
10.715263 24.380158 23.764391
18.347635 17.691824 15.144931
12.232372 -6.359905 22.940004
-1.539279 -5.705607 8.354582
-3.812080 32.639295 8.354582
32.553221 -5.705607 8.354582
30.280420 32.639295 8.354582
20.936012 30.661948 -0.034646
18.663210 11.489599 33.173071
1.074484 0.325828 9.650508
35.166984 0.325828 9.650508
19.855718 1.676530 3.820415
7.660461 17.326919 20.493886
5.460155 19.600374 22.492803
26.055857 -0.405977 1.453126
23.783056 -19.578327 34.660844
23.783056 37.938924 1.453126
21.510255 18.766575 34.660844
-2.872339 -6.566377 29.846210
31.220161 -6.566377 29.846210
1.958875 8.415745 27.849377
14.037025 16.967577 29.639994
5.474164 8.952289 7.875040
15.596045 -13.012818 20.427959
13.323244 25.332084 20.427959
15.852345 -0.999390 14.132178
10.237214 -16.348952 23.698182
7.964413 21.995949 23.698182
0.602904 30.309495 -0.927882
-1.669897 11.137145 32.279835
34.695404 30.309495 -0.927882
32.422603 11.137145 32.279835
26.918144 13.614044 3.167476
24.645343 -5.558305 36.375193
6.575461 -15.622224 22.954087
4.302659 22.722677 22.954087
23.872726 -11.923306 27.399055
21.008325 -11.238757 29.063159
11.532347 5.699332 1.846766
9.259546 -13.473018 35.054484
13.948037 5.020893 22.982503
-2.192791 1.862291 0.448887
-4.465593 -17.310058 33.656605
-4.465593 40.207193 0.448887
-6.738394 21.034844 33.656605
31.899709 1.862291 0.448887
29.626907 -17.310058 33.656605
29.626907 40.207193 0.448887
27.354106 21.034844 33.656605
-6.183537 18.385605 18.494509
27.908963 18.385605 18.494509
3.825494 2.846990 16.155752
10.082099 2.125530 1.037470
7.809297 -17.046819 34.245187
7.809297 40.470432 1.037470
5.536496 21.298082 34.245187
17.845380 21.098566 19.215835
4.230436 -1.833238 15.468683
7.667334 1.084822 4.541181
5.394533 39.429723 4.541181
16.655707 -4.268632 28.479121
20.670002 15.557087 4.999461
LINES 0 0
POINT_DATA 426
SCALARS my_scalars float
LOOKUP_TABLE default
1.88
1.88
1.88
1.88
1.88
1.88
1.88
1.88
1.88
1.88
1.88
1.88
1.88
1.88
1.88
1.88
1.88
1.88
1.88
1.88
1.88
1.88
1.88
1.88
1.88
1.88
1.88
1.88
1.88
1.88
1.88
1.88
1.88
1.88
1.88
1.88
1.88
1.88
1.88
1.88
1.88
1.88
1.88
1.88
1.88
1.88
1.88
1.88
1.88
1.88
1.88
1.88
1.88
1.88
1.88
1.88
1.88
1.88
1.88
1.88
1.88
1.88
1.88
1.88
1.88
1.88
1.88
1.88
1.88
1.88
1.88
1.88
1.88
1.88
1.88
1.88
1.88
1.88
1.88
1.88
1.88
1.88
1.88
1.88
1.88
1.88
1.88
1.88
1.88
1.88
1.88
1.88
1.88
1.88
1.88
1.88
1.88
1.88
1.88
1.88
1.88
1.88
1.88
1.88
1.88
1.88
1.88
1.88
1.88
1.88
1.88
1.88
1.88
1.88
1.88
1.88
1.88
1.88
1.88
1.88
1.88
1.88
1.88
1.88
1.88
1.88
1.88
1.88
1.88
1.88
1.88
1.88
1.88
1.88
1.88
1.88
1.88
1.88
1.88
1.88
1.88
1.88
1.88
1.88
1.88
1.88
1.88
1.88
1.88
1.88
1.88
1.88
1.88
1.88
1.88
1.88
1.88
1.88
1.88
1.88
1.88
1.88
1.88
1.88
1.88
1.88
1.88
1.88
1.88
1.88
1.88
1.88
1.88
1.88
1.88
1.88
1.88
1.88
1.88
1.88
1.88
1.88
1.88
1.88
1.88
1.88
1.88
1.88
1.88
1.88
1.88
1.88
1.88
1.88
1.88
1.88
1.88
1.88
1.88
1.88
1.88
1.88
1.88
1.88
1.88
1.88
1.88
1.88
1.88
1.88
1.88
1.88
1.88
1.88
1.88
1.88
1.88
1.88
1.88
1.88
1.88
1.88
1.88
1.88
1.88
1.88
1.88
1.88
1.88
1.88
1.88
1.88
1.88
1.88
1.88
1.88
1.88
1.88
1.88
1.88
1.88
1.88
1.88
1.88
1.88
1.88
1.88
1.88
1.88
1.88
1.88
1.88
1.88
1.88
1.88
1.88
1.88
1.88
1.88
1.88
1.88
1.88
1.88
1.88
1.88
1.88
1.88
1.88
1.88
1.88
1.88
1.88
1.88
1.88
1.88
1.88
1.88
1.88
1.88
1.88
1.88
1.88
1.88
1.88
1.88
1.88
1.88
1.88
1.88
1.88
1.88
1.88
1.88
1.88
1.88
1.88
1.88
1.88
1.88
1.88
1.88
1.88
1.88
1.88
1.88
1.88
1.88
1.88
1.88
1.88
1.88
1.88
1.88
1.88
1.88
1.88
1.88
1.88
1.88
1.88
1.88
1.88
1.88
1.88
1.88
1.88
1.88
1.88
1.88
1.88
1.88
1.88
1.88
1.88
1.88
1.88
1.88
1.88
1.88
1.88
1.88
1.88
1.88
1.88
1.88
1.88
1.88
1.88
1.88
1.88
1.88
1.88
1.88
1.88
1.88
1.88
1.88
1.88
1.88
1.88
1.88
1.88
1.88
1.88
1.88
1.88
1.88
1.88
1.88
1.88
1.88
1.88
1.88
1.88
1.88
1.88
1.88
1.88
1.88
1.88
1.88
1.88
1.88
1.88
1.88
1.88
1.88
1.88
1.88
1.88
1.88
1.88
1.88
1.88
1.88
1.88
1.88
1.88
1.88
1.88
1.88
1.88
1.88
1.88
1.88
1.88
1.88
1.88
1.88
1.88
1.88
1.88
1.88
1.88
1.88
1.88
1.88
1.88
1.88
1.88
1.88
1.88
1.88
1.88
1.88
1.88
VECTORS vectors float
0.4375 0 0
0.4375 0 0
0.4375 0 0
0.4375 0 0
0.4375 0 0
0.4375 0 0
0.4375 0 0
0.4375 0 0
0.4375 0 0
0.4375 0 0
0.4375 0 0
0.4375 0 0
0.4375 0 0
0.4375 0 0
0.4375 0 0
0.4375 0 0
0.4375 0 0
0.4375 0 0
0.4375 0 0
0.4375 0 0
0.4375 0 0
0.4375 0 0
0.4375 0 0
0.4375 0 0
0.4375 0 0
0.4375 0 0
0.4375 0 0
0.4375 0 0
0.4375 0 0
0.4375 0 0
0.4375 0 0
0.4375 0 0
0.4375 0 0
0.4375 0 0
0.4375 0 0
0.4375 0 0
0.4375 0 0
0.4375 0 0
0.4375 0 0
0.4375 0 0
0.4375 0 0
0.4375 0 0
0.4375 0 0
0.4375 0 0
0.4375 0 0
0.4375 0 0
0.4375 0 0
0.4375 0 0
0.4375 0 0
0.4375 0 0
0.4375 0 0
0.4375 0 0
0.4375 0 0
0.4375 0 0
0.4375 0 0
0.4375 0 0
0.4375 0 0
0.4375 0 0
0.4375 0 0
0.4375 0 0
0.4375 0 0
0.4375 0 0
0.4375 0 0
0.4375 0 0
0.4375 0 0
0.4375 0 0
0.4375 0 0
0.4375 0 0
0.4375 0 0
0.4375 0 0
0.4375 0 0
0.4375 0 0
0.4375 0 0
0.4375 0 0
0.4375 0 0
0.4375 0 0
0.4375 0 0
0.4375 0 0
0.4375 0 0
0.4375 0 0
0.4375 0 0
0.4375 0 0
0.4375 0 0
0.4375 0 0
0.4375 0 0
0.4375 0 0
0.4375 0 0
0.4375 0 0
0.4375 0 0
0.4375 0 0
0.4375 0 0
0.4375 0 0
0.4375 0 0
0.4375 0 0
0.4375 0 0
0.4375 0 0
0.4375 0 0
0.4375 0 0
0.4375 0 0
0.4375 0 0
0.4375 0 0
0.4375 0 0
0.4375 0 0
0.4375 0 0
0.4375 0 0
0.4375 0 0
0.4375 0 0
0.4375 0 0
0.4375 0 0
0.4375 0 0
0.4375 0 0
0.4375 0 0
0.4375 0 0
0.4375 0 0
0.4375 0 0
0.4375 0 0
0.4375 0 0
0.4375 0 0
0.4375 0 0
0.4375 0 0
0.4375 0 0
0.4375 0 0
0.4375 0 0
0.4375 0 0
0.4375 0 0
0.4375 0 0
0.4375 0 0
0.4375 0 0
0.4375 0 0
0.4375 0 0
0.4375 0 0
0.4375 0 0
0.4375 0 0
0.4375 0 0
0.4375 0 0
0.4375 0 0
0.4375 0 0
0.4375 0 0
0.4375 0 0
0.4375 0 0
0.4375 0 0
0.4375 0 0
0.4375 0 0
0.4375 0 0
0.4375 0 0
0.4375 0 0
0.4375 0 0
0.4375 0 0
0.4375 0 0
0.4375 0 0
0.4375 0 0
0.4375 0 0
0.4375 0 0
0.4375 0 0
0.4375 0 0
0.4375 0 0
0.4375 0 0
0.4375 0 0
0.4375 0 0
0.4375 0 0
0.4375 0 0
0.4375 0 0
0.4375 0 0
0.4375 0 0
0.4375 0 0
0.4375 0 0
0.4375 0 0
0.4375 0 0
0.4375 0 0
0.4375 0 0
0.4375 0 0
0.4375 0 0
0.4375 0 0
0.4375 0 0
0.4375 0 0
0.4375 0 0
0.4375 0 0
0.4375 0 0
0.4375 0 0
0.4375 0 0
0.4375 0 0
0.4375 0 0
0.4375 0 0
0.4375 0 0
0.4375 0 0
0.4375 0 0
0.4375 0 0
0.4375 0 0
0.4375 0 0
0.4375 0 0
0.4375 0 0
0.4375 0 0
0.4375 0 0
0.4375 0 0
0.4375 0 0
0.4375 0 0
0.4375 0 0
0.4375 0 0
0.4375 0 0
0.4375 0 0
0.4375 0 0
0.4375 0 0
0.4375 0 0
0.4375 0 0
0.4375 0 0
0.4375 0 0
0.4375 0 0
0.4375 0 0
0.4375 0 0
0.4375 0 0
0.4375 0 0
0.4375 0 0
0.4375 0 0
0.4375 0 0
0.4375 0 0
0.4375 0 0
0.4375 0 0
0.4375 0 0
0.4375 0 0
0.4375 0 0
0.4375 0 0
0.4375 0 0
0.4375 0 0
0.4375 0 0
0.4375 0 0
0.4375 0 0
0.4375 0 0
0.4375 0 0
0.4375 0 0
0.4375 0 0
0.4375 0 0
0.4375 0 0
0.4375 0 0
0.4375 0 0
0.4375 0 0
0.4375 0 0
0.4375 0 0
0.4375 0 0
0.4375 0 0
0.4375 0 0
0.4375 0 0
0.4375 0 0
0.4375 0 0
0.4375 0 0
0.4375 0 0
0.4375 0 0
0.4375 0 0
0.4375 0 0
0.4375 0 0
0.4375 0 0
0.4375 0 0
0.4375 0 0
0.4375 0 0
0.4375 0 0
0.4375 0 0
0.4375 0 0
0.4375 0 0
0.4375 0 0
0.4375 0 0
0.4375 0 0
0.4375 0 0
0.4375 0 0
0.4375 0 0
0.4375 0 0
0.4375 0 0
0.4375 0 0
0.4375 0 0
0.4375 0 0
0.4375 0 0
0.4375 0 0
0.4375 0 0
0.4375 0 0
0.4375 0 0
0.4375 0 0
0.4375 0 0
0.4375 0 0
0.4375 0 0
0.4375 0 0
0.4375 0 0
0.4375 0 0
0.4375 0 0
0.4375 0 0
0.4375 0 0
0.4375 0 0
0.4375 0 0
0.4375 0 0
0.4375 0 0
0.4375 0 0
0.4375 0 0
0.4375 0 0
0.4375 0 0
0.4375 0 0
0.4375 0 0
0.4375 0 0
0.4375 0 0
0.4375 0 0
0.4375 0 0
0.4375 0 0
0.4375 0 0
0.4375 0 0
0.4375 0 0
0.4375 0 0
0.4375 0 0
0.4375 0 0
0.4375 0 0
0.4375 0 0
0.4375 0 0
0.4375 0 0
0.4375 0 0
0.4375 0 0
0.4375 0 0
0.4375 0 0
0.4375 0 0
0.4375 0 0
0.4375 0 0
0.4375 0 0
0.4375 0 0
0.4375 0 0
0.4375 0 0
0.4375 0 0
0.4375 0 0
0.4375 0 0
0.4375 0 0
0.4375 0 0
0.4375 0 0
0.4375 0 0
0.4375 0 0
0.4375 0 0
0.4375 0 0
0.4375 0 0
0.4375 0 0
0.4375 0 0
0.4375 0 0
0.4375 0 0
0.4375 0 0
0.4375 0 0
0.4375 0 0
0.4375 0 0
0.4375 0 0
0.4375 0 0
0.4375 0 0
0.4375 0 0
0.4375 0 0
0.4375 0 0
0.4375 0 0
0.4375 0 0
0.4375 0 0
0.4375 0 0
0.4375 0 0
0.4375 0 0
0.4375 0 0
0.4375 0 0
0.4375 0 0
0.4375 0 0
0.4375 0 0
0.4375 0 0
0.4375 0 0
0.4375 0 0
0.4375 0 0
0.4375 0 0
0.4375 0 0
0.4375 0 0
0.4375 0 0
0.4375 0 0
0.4375 0 0
0.4375 0 0
0.4375 0 0
0.4375 0 0
0.4375 0 0
0.4375 0 0
0.4375 0 0
0.4375 0 0
0.4375 0 0
0.4375 0 0
0.4375 0 0
0.4375 0 0
0.4375 0 0
0.4375 0 0
0.4375 0 0
0.4375 0 0
0.4375 0 0
0.4375 0 0
0.4375 0 0
0.4375 0 0
0.4375 0 0
0.4375 0 0
0.4375 0 0
0.4375 0 0
0.4375 0 0
0.4375 0 0
0.4375 0 0
0.4375 0 0
0.4375 0 0
0.4375 0 0
0.4375 0 0
0.4375 0 0
0.4375 0 0
0.4375 0 0
0.4375 0 0
0.4375 0 0
0.4375 0 0
0.4375 0 0
0.4375 0 0
0.4375 0 0
0.4375 0 0
0.4375 0 0
0.4375 0 0
0.4375 0 0
0.4375 0 0
0.4375 0 0
0.4375 0 0
0.4375 0 0
0.4375 0 0
0.4375 0 0
0.4375 0 0
0.4375 0 0
0.4375 0 0
0.4375 0 0
0.4375 0 0
0.4375 0 0
0.4375 0 0
0.4375 0 0
0.4375 0 0
0.4375 0 0
0.4375 0 0
0.4375 0 0
