# vtk DataFile Version 1.0
Cube
ASCII

DATASET POLYDATA
POINTS 126 float
-1.546486 2.683419 1.572123
-1.575812 4.878421 3.762500
-1.963296 4.014210 2.423050
0.000664 2.249015 1.902320
0.000000 2.891427 9.540195
3.500626 0.000000 0.000000
3.500626 0.000000 15.050000
-3.134374 11.492157 0.000000
-3.134374 11.492157 15.050000
0.000664 5.269154 3.762500
0.000000 10.579680 3.762500
10.172848 0.002413 9.097123
8.257257 1.074517 11.287500
8.811943 0.306841 9.948050
11.322627 1.125082 9.427320
10.765951 1.445713 2.015195
1.750313 3.031631 7.525000
8.707110 2.635152 11.287500
4.107729 5.289840 11.287500
5.084334 8.811152 1.572123
3.198070 7.688253 3.762500
4.140240 7.784787 2.423050
4.686964 10.368224 1.902320
4.130951 10.046444 9.540195
-1.750313 3.031631 0.000000
-1.750313 3.031631 15.050000
11.519687 3.031631 0.000000
11.519687 3.031631 15.050000
2.071447 8.858155 3.762500
-2.527271 6.202317 3.762500
8.181486 8.808738 9.097123
8.210812 6.613736 11.287500
8.598297 7.477947 9.948050
6.634337 9.243142 9.427320
6.635000 8.600730 2.015195
9.769374 0.000000 7.525000
3.134374 11.492157 7.525000
6.634336 6.223003 11.287500
6.635000 0.912477 11.287500
-3.537848 11.489744 1.572123
-1.622257 10.417640 3.762500
-2.176943 11.185317 2.423050
-4.687627 10.367075 1.902320
-4.130951 10.046444 9.540195
4.884687 8.460526 0.000000
4.884687 8.460526 15.050000
-2.072110 8.857005 3.762500
2.527271 6.202317 3.762500
1.550666 2.681005 9.097123
3.436930 3.803904 11.287500
2.494760 3.707370 9.948050
1.948036 1.123933 9.427320
2.504049 1.445713 2.015195
-4.884687 8.460526 7.525000
8.385313 8.460526 7.525000
4.563553 2.634002 11.287500
9.162271 5.289840 11.287500
3.537848 11.489744 5.952877
1.622258 10.417640 3.762500
2.176944 11.185317 5.101950
4.687628 10.367075 5.622680
4.130951 10.046444 13.034805
5.088514 8.808738 13.477877
5.059188 6.613736 11.287500
4.671704 7.477947 12.626950
6.635664 9.243142 13.147680
6.635000 8.600730 5.509805
-5.084334 8.811152 5.952877
-3.198070 7.688253 3.762500
-4.140240 7.784787 5.101950
-4.686964 10.368224 5.622680
-4.130951 10.046444 13.034805
3.097152 0.002413 13.477877
5.012743 1.074517 11.287500
4.458056 0.306841 12.626950
1.947373 1.125082 13.147680
2.504049 1.445713 5.509805
1.546486 2.683419 5.952877
1.575813 4.878421 3.762500
1.963297 4.014210 5.101950
-0.000663 2.249015 5.622680
0.000000 2.891427 13.034805
11.719334 2.681005 13.477877
9.833070 3.803904 11.287500
10.775240 3.707370 12.626950
11.321964 1.123933 13.147680
10.765951 1.445713 5.509805
8.181486 8.808738 13.477877
8.598297 7.477947 12.626950
9.769374 0.000000 0.000000
9.769374 0.000000 15.050000
3.134374 11.492157 0.000000
3.134374 11.492157 15.050000
-3.537848 11.489744 5.952877
-2.176943 11.185317 5.101950
4.884687 8.460526 7.525000
1.550666 2.681005 13.477877
2.494760 3.707370 12.626950
-4.884687 8.460526 0.000000
-4.884687 8.460526 15.050000
8.385313 8.460526 0.000000
8.385313 8.460526 15.050000
-1.546486 2.683419 5.952877
-1.963296 4.014210 5.101950
3.500626 0.000000 7.525000
-3.134374 11.492157 7.525000
10.172848 0.002413 13.477877
8.811943 0.306841 12.626950
1.750313 3.031631 0.000000
1.750313 3.031631 15.050000
5.084334 8.811152 5.952877
4.140240 7.784787 5.101950
-1.750313 3.031631 7.525000
11.519687 3.031631 7.525000
3.097152 0.002413 9.097123
4.458056 0.306841 9.948050
1.546486 2.683419 1.572123
1.963297 4.014210 2.423050
11.719334 2.681005 9.097123
10.775240 3.707370 9.948050
3.537848 11.489744 1.572123
2.176944 11.185317 2.423050
5.088514 8.808738 9.097123
4.671704 7.477947 9.948050
-5.084334 8.811152 1.572123
-4.140240 7.784787 2.423050
POINT_DATA 126
SCALARS my_scalars float
LOOKUP_TABLE default
2.1
2.1
1.52
1.52
1.52
1.52
1.52
1.52
1.52
1.52
1.52
2.1
2.1
1.52
1.52
1.52
1.52
1.52
1.52
2.1
2.1
1.52
1.52
1.52
1.52
1.52
1.52
1.52
1.52
1.52
2.1
2.1
1.52
1.52
1.52
1.52
1.52
1.52
1.52
2.1
2.1
1.52
1.52
1.52
1.52
1.52
1.52
1.52
2.1
2.1
1.52
1.52
1.52
1.52
1.52
1.52
1.52
2.1
2.1
1.52
1.52
1.52
2.1
2.1
1.52
1.52
1.52
2.1
2.1
1.52
1.52
1.52
2.1
2.1
1.52
1.52
1.52
2.1
2.1
1.52
1.52
1.52
2.1
2.1
1.52
1.52
1.52
2.1
1.52
1.52
1.52
1.52
1.52
2.1
1.52
1.52
2.1
1.52
1.52
1.52
1.52
1.52
2.1
1.52
1.52
1.52
2.1
1.52
1.52
1.52
2.1
1.52
1.52
1.52
2.1
1.52
2.1
1.52
2.1
1.52
2.1
1.52
2.1
1.52
2.1
1.52
VECTORS vectors float
0.125 0 0
0.125 0 0
0.03125 0 0
0.03125 0 0
0.03125 0 0
0.03125 0 0
0.03125 0 0
0.03125 0 0
0.03125 0 0
0.03125 0 0
0.03125 0 0
0.125 0 0
0.125 0 0
0.03125 0 0
0.03125 0 0
0.03125 0 0
0.03125 0 0
0.03125 0 0
0.03125 0 0
0.125 0 0
0.125 0 0
0.03125 0 0
0.03125 0 0
0.03125 0 0
0.03125 0 0
0.03125 0 0
0.03125 0 0
0.03125 0 0
0.03125 0 0
0.03125 0 0
0.125 0 0
0.125 0 0
0.03125 0 0
0.03125 0 0
0.03125 0 0
0.03125 0 0
0.03125 0 0
0.03125 0 0
0.03125 0 0
0.125 0 0
0.125 0 0
0.03125 0 0
0.03125 0 0
0.03125 0 0
0.03125 0 0
0.03125 0 0
0.03125 0 0
0.03125 0 0
0.125 0 0
0.125 0 0
0.03125 0 0
0.03125 0 0
0.03125 0 0
0.03125 0 0
0.03125 0 0
0.03125 0 0
0.03125 0 0
0.125 0 0
0.125 0 0
0.03125 0 0
0.03125 0 0
0.03125 0 0
0.125 0 0
0.125 0 0
0.03125 0 0
0.03125 0 0
0.03125 0 0
0.125 0 0
0.125 0 0
0.03125 0 0
0.03125 0 0
0.03125 0 0
0.125 0 0
0.125 0 0
0.03125 0 0
0.03125 0 0
0.03125 0 0
0.125 0 0
0.125 0 0
0.03125 0 0
0.03125 0 0
0.03125 0 0
0.125 0 0
0.125 0 0
0.03125 0 0
0.03125 0 0
0.03125 0 0
0.125 0 0
0.03125 0 0
0.03125 0 0
0.03125 0 0
0.03125 0 0
0.03125 0 0
0.125 0 0
0.03125 0 0
0.03125 0 0
0.125 0 0
0.03125 0 0
0.03125 0 0
0.03125 0 0
0.03125 0 0
0.03125 0 0
0.125 0 0
0.03125 0 0
0.03125 0 0
0.03125 0 0
0.125 0 0
0.03125 0 0
0.03125 0 0
0.03125 0 0
0.125 0 0
0.03125 0 0
0.03125 0 0
0.03125 0 0
0.125 0 0
0.03125 0 0
0.125 0 0
0.03125 0 0
0.125 0 0
0.03125 0 0
0.125 0 0
0.03125 0 0
0.125 0 0
0.03125 0 0
0.125 0 0
0.03125 0 0
