# vtk DataFile Version 1.0
Cube
ASCII

DATASET POLYDATA
POINTS 107 float
11.562686 3.299131 25.198681
16.188608 -2.305119 6.238245
13.915807 36.039782 6.238245
1.967250 16.317106 8.778667
20.256742 10.340660 8.042672
0.403128 13.501429 5.044686
34.495628 13.501429 5.044686
16.973488 -5.917448 14.687367
14.700686 32.427453 14.687367
10.432380 -4.527915 24.370478
3.653814 11.850363 5.877421
21.021563 -13.592393 24.457260
18.748762 24.752508 24.457260
27.645326 23.006396 7.726260
7.500323 4.024973 26.160621
23.909171 -13.766458 21.108768
21.636370 24.578443 21.108768
25.698323 17.200664 15.821029
11.956413 6.046053 9.268493
4.743401 15.253299 -2.853425
2.470600 -3.919051 30.354293
-2.162792 -0.990780 6.141745
-4.435593 37.354121 6.141745
31.929708 -0.990780 6.141745
29.656907 37.354121 6.141745
0.836742 4.713731 26.238221
4.906923 5.051959 9.112839
4.025747 9.866121 24.922478
23.361385 -16.153382 24.275908
21.088584 22.191520 24.275908
10.237484 -6.509713 13.232086
7.964683 31.835189 13.232086
25.217393 0.467102 18.244658
0.802195 34.394808 -1.900128
-1.470606 15.222459 31.307589
34.894695 34.394808 -1.900128
32.621894 15.222459 31.307589
-0.106908 8.435011 11.273714
33.985592 8.435011 11.273714
0.541737 -0.785821 16.094242
34.634237 -0.785821 16.094242
24.075779 13.736391 5.801943
27.909675 -8.205230 23.943363
28.590763 10.417045 9.195803
26.252285 6.317199 29.269001
-5.375022 -5.816630 27.423359
28.717478 -5.816630 27.423359
6.753728 23.040337 8.204379
-0.049667 7.948959 24.593114
34.042833 7.948959 24.593114
26.991925 -10.727143 28.747005
12.853074 23.938252 2.136082
10.580273 4.765902 35.343799
11.139108 17.212665 17.153890
8.843499 15.867345 22.586525
13.914525 18.748692 15.480406
15.411594 17.662699 18.310947
2.999325 15.480451 18.457847
15.989088 5.399435 26.991131
25.331733 -7.304697 10.390111
23.058931 31.040204 10.390111
23.285654 -4.724993 25.759846
23.034217 1.395401 8.833094
23.578205 14.541134 9.597495
7.254189 -3.038687 11.946692
4.981387 35.306215 11.946692
9.125585 10.407592 22.306659
-3.501924 1.242812 15.072681
30.590576 1.242812 15.072681
21.633569 3.623852 24.500647
7.672462 5.175417 11.595322
20.751113 24.314690 8.585718
4.584553 25.072403 0.721131
2.311752 5.900054 33.928849
4.181023 3.053392 13.261635
-1.125835 25.855151 8.974235
32.966665 25.855151 8.974235
8.041267 31.447229 1.731576
5.768466 12.274880 34.939293
27.335748 26.851848 8.654573
26.032986 16.368321 22.795803
28.428772 25.462167 4.976318
11.979158 -2.400150 15.112462
0.158935 7.440984 4.346806
34.251435 7.440984 4.346806
15.078570 27.191533 0.799570
12.805768 8.019184 34.007287
17.305873 15.738229 6.377902
14.502215 -10.481679 25.034542
0.442082 3.948422 10.457696
34.534582 3.948422 10.457696
18.737546 -11.162626 22.199737
16.464745 27.182275 22.199737
2.624985 -6.119895 11.085075
0.352184 32.225007 11.085075
36.717485 -6.119895 11.085075
34.444684 32.225007 11.085075
12.106511 -8.952428 10.404371
9.833710 29.392474 10.404371
28.796455 -13.497138 21.232656
26.523653 24.847763 21.232656
10.964857 26.728496 5.648025
10.059361 -18.027925 26.423046
7.786560 20.316976 26.423046
11.707408 12.511732 7.928683
-3.265196 14.761537 9.025782
30.827304 14.761537 9.025782
LINES 0 0
POINT_DATA 107
SCALARS my_scalars float
LOOKUP_TABLE default
1.88
1.88
1.88
1.88
1.88
1.88
1.88
1.88
1.88
1.88
1.88
1.88
1.88
1.88
1.88
1.88
1.88
1.88
1.88
1.88
1.88
1.88
1.88
1.88
1.88
1.88
1.88
1.88
1.88
1.88
1.88
1.88
1.88
1.88
1.88
1.88
1.88
1.88
1.88
1.88
1.88
1.88
1.88
1.88
1.88
1.88
1.88
1.88
1.88
1.88
1.88
1.88
1.88
1.88
1.88
1.88
1.88
1.88
1.88
1.88
1.88
1.88
1.88
1.88
1.88
1.88
1.88
1.88
1.88
1.88
1.88
1.88
1.88
1.88
1.88
1.88
1.88
1.88
1.88
1.88
1.88
1.88
1.88
1.88
1.88
1.88
1.88
1.88
1.88
1.88
1.88
1.88
1.88
1.88
1.88
1.88
1.88
1.88
1.88
1.88
1.88
1.88
1.88
1.88
1.88
1.88
1.88
VECTORS vectors float
0.4375 0 0
0.4375 0 0
0.4375 0 0
0.4375 0 0
0.4375 0 0
0.4375 0 0
0.4375 0 0
0.4375 0 0
0.4375 0 0
0.4375 0 0
0.4375 0 0
0.4375 0 0
0.4375 0 0
0.4375 0 0
0.4375 0 0
0.4375 0 0
0.4375 0 0
0.4375 0 0
0.4375 0 0
0.4375 0 0
0.4375 0 0
0.4375 0 0
0.4375 0 0
0.4375 0 0
0.4375 0 0
0.4375 0 0
0.4375 0 0
0.4375 0 0
0.4375 0 0
0.4375 0 0
0.4375 0 0
0.4375 0 0
0.4375 0 0
0.4375 0 0
0.4375 0 0
0.4375 0 0
0.4375 0 0
0.4375 0 0
0.4375 0 0
0.4375 0 0
0.4375 0 0
0.4375 0 0
0.4375 0 0
0.4375 0 0
0.4375 0 0
0.4375 0 0
0.4375 0 0
0.4375 0 0
0.4375 0 0
0.4375 0 0
0.4375 0 0
0.4375 0 0
0.4375 0 0
0.4375 0 0
0.4375 0 0
0.4375 0 0
0.4375 0 0
0.4375 0 0
0.4375 0 0
0.4375 0 0
0.4375 0 0
0.4375 0 0
0.4375 0 0
0.4375 0 0
0.4375 0 0
0.4375 0 0
0.4375 0 0
0.4375 0 0
0.4375 0 0
0.4375 0 0
0.4375 0 0
0.4375 0 0
0.4375 0 0
0.4375 0 0
0.4375 0 0
0.4375 0 0
0.4375 0 0
0.4375 0 0
0.4375 0 0
0.4375 0 0
0.4375 0 0
0.4375 0 0
0.4375 0 0
0.4375 0 0
0.4375 0 0
0.4375 0 0
0.4375 0 0
0.4375 0 0
0.4375 0 0
0.4375 0 0
0.4375 0 0
0.4375 0 0
0.4375 0 0
0.4375 0 0
0.4375 0 0
0.4375 0 0
0.4375 0 0
0.4375 0 0
0.4375 0 0
0.4375 0 0
0.4375 0 0
0.4375 0 0
0.4375 0 0
0.4375 0 0
0.4375 0 0
0.4375 0 0
0.4375 0 0
